 Gaussian 16, Revision A.03,
 Gaussian 16:  ES64L-G16RevA.03 25-Dec-2016

 ---------------------------------------------
 # b3lyp/6-31g Symmetry=None opt(calcall) freq
 ---------------------------------------------

 ------------
 5_hexagons19
 ------------
 Symbolic Z-matrix:
 Charge =  0 Multiplicity = 2

 SCF Done:  E(UB3LYP) =  -807.894781219     A.U. after   22 cycles
 SCF Done:  E(UB3LYP) =  -807.897956889     A.U. after   19 cycles
 SCF Done:  E(UB3LYP) =  -807.903348184     A.U. after   21 cycles
 SCF Done:  E(UB3LYP) =  -807.903677255     A.U. after   13 cycles
 SCF Done:  E(UB3LYP) =  -807.903678490     A.U. after   11 cycles
 Optimization completed.
    -- Stationary point found.
 Normal termination of Gaussian 16 at Wed Nov  3 02:35:47 2021.

 -----------------------------------------------------------------
 #N Geom=AllCheck Guess=TCheck SCRF=Check GenChk UB3LYP/6-31G Freq
 -----------------------------------------------------------------

 Structure from the checkpoint file:  "5_hexagons19.chk"
 ------------
 5_hexagons19
 ------------
 Charge =  0 Multiplicity = 2

                          Input orientation:
 ---------------------------------------------------------------------
 Center     Atomic      Atomic             Coordinates (Angstroms)
 Number     Number       Type             X           Y           Z
 ---------------------------------------------------------------------
      1          6           0        0.498116    2.677381   -2.850677
      2          6           0        0.472915    1.437176   -2.231856
      3          6           0        0.130646    3.843618   -2.140036
      4          6           0        0.075595    1.282917   -0.874212
      5          6           0       -0.170454    2.491597   -0.125339
      6          6           0        0.000002    0.000000   -0.187138
      7          6           0       -0.178564    3.748963   -0.799241
      8          6           0       -0.328957    2.431315    1.275930
      9          6           0       -0.472859   -1.437165   -2.231876
     10          6           0       -0.075574   -1.282912   -0.874220
     11          6           0       -0.498045   -2.677366   -2.850704
     12          6           0        0.170456   -2.491596   -0.125348
     13          6           0       -0.000016   -0.000003    1.234283
     14          6           0       -0.130593   -3.843607   -2.140059
     15          6           0        0.178583   -3.748959   -0.799256
     16          6           0        0.328923   -2.431322    1.275925
     17          6           0       -0.171710    1.230066    1.977045
     18          6           0        0.171659   -1.230077    1.977043
     19          6           0       -0.187057    1.194720    3.402841
     20          6           0        0.186969   -1.194738    3.402840
     21          6           0       -0.000053   -0.000011    4.095956
     22          1           0        0.821094    2.754266   -3.883968
     23          1           0        0.817208    0.576220   -2.787464
     24          1           0       -0.402319    4.640346   -0.220056
     25          1           0        0.132005    4.807716   -2.638154
     26          1           0       -0.511006    3.350437    1.826180
     27          1           0        0.510958   -3.350447    1.826175
     28          1           0        0.334759   -2.125364    3.942149
     29          1           0       -0.000067   -0.000014    5.181299
     30          1           0       -0.334860    2.125343    3.942151
     31          1           0       -0.820997   -2.754246   -3.884004
     32          1           0       -0.131939   -4.807702   -2.638182
     33          1           0        0.402323   -4.640345   -0.220070
     34          1           0       -0.817139   -0.576206   -2.787488
 ---------------------------------------------------------------------

 SCF Done:  E(UB3LYP) =  -807.903678490     A.U. after    1 cycles

 Alpha  occ. eigenvalues --  -10.20485 -10.20338 -10.20335 -10.20039 -10.19759
 Alpha  occ. eigenvalues --  -10.19759 -10.19723 -10.19722 -10.19129 -10.19125
 Alpha  occ. eigenvalues --  -10.18997 -10.18997 -10.18907 -10.18907 -10.18863
 Alpha  occ. eigenvalues --  -10.18863 -10.18792 -10.18764 -10.18764 -10.18596
 Alpha  occ. eigenvalues --  -10.18595  -0.89470  -0.86474  -0.85461  -0.81110
 Alpha  occ. eigenvalues --   -0.80847  -0.78240  -0.74971  -0.74683  -0.74247
 Alpha  occ. eigenvalues --   -0.71853  -0.67579  -0.64308  -0.62808  -0.62594
 Alpha  occ. eigenvalues --   -0.59383  -0.59207  -0.54836  -0.54806  -0.52470
 Alpha  occ. eigenvalues --   -0.52253  -0.48915  -0.47743  -0.46835  -0.46189
 Alpha  occ. eigenvalues --   -0.45768  -0.44283  -0.44085  -0.42168  -0.42108
 Alpha  occ. eigenvalues --   -0.41525  -0.40859  -0.40373  -0.39234  -0.38115
 Alpha  occ. eigenvalues --   -0.37816  -0.37030  -0.36276  -0.35537  -0.34688
 Alpha  occ. eigenvalues --   -0.32722  -0.32303  -0.31950  -0.30940  -0.28648
 Alpha  occ. eigenvalues --   -0.25662  -0.25045  -0.24437  -0.20988  -0.15939
 Alpha virt. eigenvalues --   -0.05283  -0.01290  -0.00897   0.00026   0.03336
 Alpha virt. eigenvalues --    0.06520   0.06989   0.09785   0.10512   0.10557
 Alpha virt. eigenvalues --    0.12502   0.12771   0.14806   0.15426   0.15772

  Beta  occ. eigenvalues --  -10.20637 -10.20157 -10.20156 -10.19947 -10.19906
  Beta  occ. eigenvalues --  -10.19897 -10.19889 -10.19889 -10.19020 -10.18874
  Beta  occ. eigenvalues --  -10.18874 -10.18749 -10.18749 -10.18722 -10.18722
  Beta  occ. eigenvalues --  -10.18674 -10.18673 -10.18626 -10.18624 -10.18562
  Beta  occ. eigenvalues --  -10.18562  -0.89297  -0.86282  -0.85225  -0.80722
  Beta  occ. eigenvalues --   -0.80632  -0.77936  -0.74743  -0.74420  -0.74158
  Beta  occ. eigenvalues --   -0.71626  -0.66582  -0.64148  -0.62687  -0.62486
  Beta  occ. eigenvalues --   -0.59197  -0.59100  -0.54640  -0.54580  -0.52361
  Beta  occ. eigenvalues --   -0.52149  -0.48751  -0.47546  -0.46635  -0.46126
  Beta  occ. eigenvalues --   -0.45707  -0.44232  -0.44037  -0.42021  -0.41955
  Beta  occ. eigenvalues --   -0.41312  -0.40551  -0.40287  -0.39008  -0.37999
  Beta  occ. eigenvalues --   -0.37373  -0.36810  -0.35761  -0.35498  -0.34582
  Beta  occ. eigenvalues --   -0.32604  -0.32142  -0.30830  -0.30553  -0.27679
  Beta  occ. eigenvalues --   -0.25267  -0.24236  -0.23948  -0.20131
  Beta virt. eigenvalues --   -0.09435  -0.04422  -0.00676  -0.00603   0.00699
  Beta virt. eigenvalues --    0.04104   0.07099   0.08001   0.09940   0.10569
  Beta virt. eigenvalues --    0.10645   0.12734   0.12891   0.15268   0.15604

 Mulliken charges and spin densities:
               1          2
     1  C   -0.139054   0.131104
     2  C   -0.162167  -0.090087
     3  C   -0.125486  -0.083498
     4  C    0.044841   0.158166
     5  C    0.071231  -0.138259
     6  C   -0.014653  -0.143984
     7  C   -0.162392   0.118819
     8  C   -0.223210   0.350332
     9  C   -0.162167  -0.090087
    10  C    0.044841   0.158166
    11  C   -0.139054   0.131104
    12  C    0.071231  -0.138259
    13  C   -0.015016   0.110936
    14  C   -0.125486  -0.083498
    15  C   -0.162392   0.118819
    16  C   -0.223210   0.350332
    17  C    0.075142  -0.195010
    18  C    0.075142  -0.195010
    19  C   -0.149195   0.402938
    20  C   -0.149195   0.402938
    21  C   -0.138650  -0.214102
    22  H    0.125187  -0.005648
    23  H    0.150368   0.002810
    24  H    0.129388  -0.004831
    25  H    0.126534   0.002837
    26  H    0.131718  -0.012871
    27  H    0.131718  -0.012871
    28  H    0.127639  -0.016353
    29  H    0.127234   0.006256
    30  H    0.127639  -0.016353
    31  H    0.125187  -0.005648
    32  H    0.126534   0.002837
    33  H    0.129388  -0.004831
    34  H    0.150368   0.002810
 Sum of Mulliken charges =  -0.00000   1.00000

 Dipole moment (field-independent basis, Debye):
    X=              0.0000    Y=              0.0000    Z=             -0.0017  Tot=              0.0017
 Quadrupole moment (field-independent basis, Debye-Ang):
   XX=           -126.3612   YY=           -104.4313   ZZ=           -105.2450
   XY=             -1.7238   XZ=             -0.0003   YZ=             -0.0000

  Exact polarizability:  67.743 -11.506 340.310  -0.003  -0.000 320.226
 Approx polarizability: 101.341 -35.097 599.247  -0.006  -0.000 583.863

                      1                      2                      3
                      A                      A                      A
 Frequencies --     83.1204                84.8252               106.1142
 Red. masses --      4.0119                 4.6324                 5.0216
 Frc consts  --      0.0163                 0.0196                 0.0333
 IR Inten    --      0.1144                 0.0045                 1.8279

                      4                      5                      6
                      A                      A                      A
 Frequencies --    132.9499               190.7325               262.9985
 Red. masses --      4.5055                 4.2326                 4.7052
 Frc consts  --      0.0469                 0.0907                 0.1917
 IR Inten    --      0.1021                 0.0388                 0.0332

                      7                      8                      9
                      A                      A                      A
 Frequencies --    263.6364               267.9839               320.7373
 Red. masses --      4.6125                 4.6258                 4.4015
 Frc consts  --      0.1889                 0.1957                 0.2668
 IR Inten    --      0.3106                 1.3829                 2.3869

                     10                     11                     12
                      A                      A                      A
 Frequencies --    343.0602               348.3196               385.5477
 Red. masses --      3.9063                 5.8034                 6.0075
 Frc consts  --      0.2709                 0.4148                 0.5261
 IR Inten    --      0.0742                 0.6437                 0.1168

                     13                     14                     15
                      A                      A                      A
 Frequencies --    430.7714               437.3896               451.3776
 Red. masses --      4.3380                 6.2474                 4.1354
 Frc consts  --      0.4743                 0.7042                 0.4964
 IR Inten    --      0.8344                 0.0008                 0.6074

                     16                     17                     18
                      A                      A                      A
 Frequencies --    508.2603               523.0675               542.4063
 Red. masses --      3.4671                 3.5586                 3.9541
 Frc consts  --      0.5277                 0.5736                 0.6854
 IR Inten    --      0.4776                 1.6895                 0.1473

                     19                     20                     21
                      A                      A                      A
 Frequencies --    545.0334               594.1852               595.3939
 Red. masses --      3.0577                 6.4823                 5.6302
 Frc consts  --      0.5352                 1.3484                 1.1759
 IR Inten    --      9.9336                 1.0805                 1.2513

                     22                     23                     24
                      A                      A                      A
 Frequencies --    620.8994               646.3045               648.8984
 Red. masses --      3.2725                 4.6784                 4.5373
 Frc consts  --      0.7433                 1.1514                 1.1256
 IR Inten    --      0.0768                16.6308                 8.0115

                     25                     26                     27
                      A                      A                      A
 Frequencies --    662.4167               679.0993               694.9806
 Red. masses --      6.3560                 5.6405                 6.2178
 Frc consts  --      1.6432                 1.5326                 1.7694
 IR Inten    --      1.1187                 1.6476                 0.3582

                     28                     29                     30
                      A                      A                      A
 Frequencies --    744.6214               774.5901               775.6409
 Red. masses --      1.8110                 2.6085                 1.3401
 Frc consts  --      0.5916                 0.9221                 0.4750
 IR Inten    --     22.1948                 0.0378                56.1077

                     31                     32                     33
                      A                      A                      A
 Frequencies --    787.4784               794.0535               824.0915
 Red. masses --      1.4604                 2.1216                 5.8958
 Frc consts  --      0.5336                 0.7882                 2.3591
 IR Inten    --      7.2342                10.0662                 0.0373

                     34                     35                     36
                      A                      A                      A
 Frequencies --    834.4012               843.0363               859.6730
 Red. masses --      3.2129                 5.1699                 1.3446
 Frc consts  --      1.3180                 2.1648                 0.5855
 IR Inten    --     11.7133                 0.8548                 1.0637

                     37                     38                     39
                      A                      A                      A
 Frequencies --    879.7699               898.5922               908.3847
 Red. masses --      1.4733                 1.5123                 4.1034
 Frc consts  --      0.6718                 0.7195                 1.9950
 IR Inten    --     34.0189                 0.6769                 0.0371

                     40                     41                     42
                      A                      A                      A
 Frequencies --    915.6134               921.5903               948.7628
 Red. masses --      1.7976                 1.6248                 5.9258
 Frc consts  --      0.8879                 0.8131                 3.1428
 IR Inten    --     48.1707                 0.0563                 0.0309

                     43                     44                     45
                      A                      A                      A
 Frequencies --    966.9003               985.4356               996.8779
 Red. masses --      5.8758                 1.3812                 1.3478
 Frc consts  --      3.2365                 0.7902                 0.7892
 IR Inten    --      2.4651                 5.7093                 1.0205

                     46                     47                     48
                      A                      A                      A
 Frequencies --   1002.0865              1018.2501              1038.1529
 Red. masses --      1.3543                 1.3365                 1.3337
 Frc consts  --      0.8013                 0.8164                 0.8469
 IR Inten    --      0.0260                 0.5231                 0.9095

                     49                     50                     51
                      A                      A                      A
 Frequencies --   1063.8412              1084.4233              1099.1994
 Red. masses --      2.5946                 2.2420                 3.2209
 Frc consts  --      1.7301                 1.5534                 2.2929
 IR Inten    --      3.7944                 1.8238                 0.2056

                     52                     53                     54
                      A                      A                      A
 Frequencies --   1116.2458              1157.8950              1188.8875
 Red. masses --      2.2661                 2.7359                 1.6154
 Frc consts  --      1.6636                 2.1611                 1.3453
 IR Inten    --      2.1065                 0.7614                 2.6630

                     55                     56                     57
                      A                      A                      A
 Frequencies --   1211.1837              1216.4289              1227.7594
 Red. masses --      1.2766                 1.3251                 1.2529
 Frc consts  --      1.1034                 1.1553                 1.1127
 IR Inten    --      0.1881                 1.4422                 0.4781

                     58                     59                     60
                      A                      A                      A
 Frequencies --   1232.5750              1241.2195              1245.3752
 Red. masses --      1.9101                 1.5239                 1.3360
 Frc consts  --      1.7097                 1.3832                 1.2208
 IR Inten    --      3.6357                 4.5128                 0.3560

                     61                     62                     63
                      A                      A                      A
 Frequencies --   1259.8504              1314.8842              1320.7652
 Red. masses --      2.6280                 2.1249                 1.7745
 Frc consts  --      2.4576                 2.1645                 1.8238
 IR Inten    --      0.3104                 2.3368                 1.0237

                     64                     65                     66
                      A                      A                      A
 Frequencies --   1349.6266              1357.1421              1380.7688
 Red. masses --      4.7015                 2.1450                 4.7453
 Frc consts  --      5.0456                 2.3277                 5.3303
 IR Inten    --      2.5122                 0.5370                 0.8898

                     67                     68                     69
                      A                      A                      A
 Frequencies --   1403.5849              1404.0345              1410.7053
 Red. masses --      6.4578                 4.0314                 5.0303
 Frc consts  --      7.4957                 4.6823                 5.8982
 IR Inten    --      0.5516                 0.7644                 1.1665

                     70                     71                     72
                      A                      A                      A
 Frequencies --   1441.0400              1461.8989              1485.4004
 Red. masses --      3.0420                 1.7580                 2.5545
 Frc consts  --      3.7219                 2.2136                 3.3208
 IR Inten    --      0.3704                 1.6194                10.5230

                     73                     74                     75
                      A                      A                      A
 Frequencies --   1492.0686              1510.1642              1543.0545
 Red. masses --      1.9995                 2.2223                 2.2933
 Frc consts  --      2.6227                 2.9860                 3.2171
 IR Inten    --      3.2401                 1.9914                 7.0290

                     76                     77                     78
                      A                      A                      A
 Frequencies --   1554.8521              1572.1858              1577.8662
 Red. masses --      3.7582                 4.1403                 3.4684
 Frc consts  --      5.3531                 6.0296                 5.0877
 IR Inten    --      6.9670                 1.7144                 0.1025

                     79                     80                     81
                      A                      A                      A
 Frequencies --   1599.3682              1604.9198              1615.1196
 Red. masses --      6.5913                 5.0277                 5.2120
 Frc consts  --      9.9338                 7.6300                 8.0106
 IR Inten    --      0.4800                 0.1179                 4.6176

                     82                     83                     84
                      A                      A                      A
 Frequencies --   1657.6631              1662.5286              3186.6398
 Red. masses --      5.1700                 5.3053                 1.0879
 Frc consts  --      8.3701                 8.6396                 6.5087
 IR Inten    --      7.1463                 1.1574                 0.4552

                     85                     86                     87
                      A                      A                      A
 Frequencies --   3186.7159              3189.1245              3190.2221
 Red. masses --      1.0880                 1.0861                 1.0885
 Frc consts  --      6.5098                 6.5085                 6.5270
 IR Inten    --      0.4950                 5.2516                10.0335

                     88                     89                     90
                      A                      A                      A
 Frequencies --   3191.9715              3200.2241              3200.8202
 Red. masses --      1.0878                 1.0897                 1.0898
 Frc consts  --      6.5298                 6.5754                 6.5781
 IR Inten    --      3.1093                 1.5863                39.1569

                     91                     92                     93
                      A                      A                      A
 Frequencies --   3201.0752              3218.5099              3218.9735
 Red. masses --      1.0900                 1.0976                 1.0966
 Frc consts  --      6.5807                 6.6991                 6.6946
 IR Inten    --     16.8851                69.4186                76.8761

                     94                     95                     96
                      A                      A                      A
 Frequencies --   3219.9229              3246.2643              3260.4947
 Red. masses --      1.0970                 1.0935                 1.0911
 Frc consts  --      6.7014                 6.7894                 6.8343
 IR Inten    --      7.8336                 3.1649                12.9977

 - Thermochemistry -
 -------------------
 Temperature   298.150 Kelvin.  Pressure   1.00000 Atm.
 Atom     1 has atomic number  6 and mass  12.00000

 Molecular mass:   265.10173 amu.
 Principal axes and moments of inertia in atomic units:
                           1         2         3
     Eigenvalues --  4413.496705261.595839523.14298
           X            0.00346  -0.00001   0.99999
           Y            0.99999  -0.00000  -0.00346
           Z            0.00000   1.00000   0.00001
 This molecule is an asymmetric top.
 Rotational symmetry number  1.
 Warning -- assumption of classical behavior for rotation
           may cause significant error
 Rotational temperatures (Kelvin)      0.01962     0.01646     0.00910
 Rotational constants (GHZ):           0.40891     0.34300     0.18951
 Zero-point vibrational energy     716945.9 (Joules/Mol)
                                  171.35419 (Kcal/Mol)
 Warning -- explicit consideration of  21 degrees of freedom as
           vibrations may cause significant error
 Vibrational temperatures:    119.59   122.04   152.67   191.29   274.42
          (Kelvin)            378.40   379.31   385.57   461.47   493.59
                              501.15   554.72   619.78   629.31   649.43
                              731.27   752.58   780.40   784.18   854.90
                              856.64   893.34   929.89   933.62   953.07
                              977.07   999.92  1071.34  1114.46  1115.97
                             1133.01  1142.47  1185.68  1200.52  1212.94
                             1236.88  1265.79  1292.87  1306.96  1317.36
                             1325.96  1365.06  1391.15  1417.82  1434.28
                             1441.78  1465.03  1493.67  1530.63  1560.24
                             1581.50  1606.03  1665.95  1710.54  1742.62
                             1750.17  1766.47  1773.40  1785.84  1791.82
                             1812.64  1891.83  1900.29  1941.81  1952.62
                             1986.62  2019.45  2020.09  2029.69  2073.34
                             2103.35  2137.16  2146.75  2172.79  2220.11
                             2237.09  2262.02  2270.20  2301.13  2309.12
                             2323.80  2385.01  2392.01  4584.86  4584.97
                             4588.44  4590.02  4592.54  4604.41  4605.27
                             4605.63  4630.72  4631.38  4632.75  4670.65
                             4691.12

 Zero-point correction=                           0.273070 (Hartree/Particle)
 Thermal correction to Energy=                    0.286597
 Thermal correction to Enthalpy=                  0.287541
 Thermal correction to Gibbs Free Energy=         0.232694
 Sum of electronic and zero-point Energies=           -807.630608
 Sum of electronic and thermal Energies=              -807.617082
 Sum of electronic and thermal Enthalpies=            -807.616137
 Sum of electronic and thermal Free Energies=         -807.670985

                     E (Thermal)             CV                S
                      KCal/Mol        Cal/Mol-Kelvin    Cal/Mol-Kelvin
 Total                  179.842             59.255            115.436
 Electronic               0.000              0.000              1.377
 Translational            0.889              2.981             42.624
 Rotational               0.889              2.981             33.758
 Vibrational            178.065             53.293             37.677
 Vibration     1          0.600              1.961              3.816
 Vibration     2          0.601              1.960              3.776
 Vibration     3          0.605              1.944              3.339
 Vibration     4          0.613              1.920              2.903
 Vibration     5          0.634              1.853              2.221
 Vibration     6          0.670              1.741              1.642
 Vibration     7          0.670              1.740              1.638
 Vibration     8          0.673              1.732              1.609
 Vibration     9          0.706              1.634              1.306
 Vibration    10          0.722              1.589              1.198
 Vibration    11          0.726              1.579              1.174
 Vibration    12          0.754              1.501              1.017
 Vibration    13          0.792              1.403              0.856
 Vibration    14          0.798              1.389              0.835
 Vibration    15          0.810              1.358              0.792
 Vibration    16          0.863              1.232              0.638
 Vibration    17          0.878              1.199              0.603
 Vibration    18          0.898              1.156              0.560
 Vibration    19          0.900              1.151              0.555
 Vibration    20          0.952              1.044              0.460
 Vibration    21          0.953              1.042              0.458

 Optimization completed.
    -- Stationary point found.
 Normal termination of Gaussian 16 at Wed Nov  3 02:48:40 2021.
