 Gaussian 16, Revision A.03,
 Gaussian 16:  ES64L-G16RevA.03 25-Dec-2016

 ----------------------
 # b3lyp/6-31g opt freq
 ----------------------

 ------------
 5_hexagons18
 ------------
 Symbolic Z-matrix:
 Charge =  0 Multiplicity = 1

 SCF Done:  E(RB3LYP) =  -845.151549215     A.U. after   17 cycles
 SCF Done:  E(RB3LYP) =  -845.484007669     A.U. after   15 cycles
 SCF Done:  E(RB3LYP) =  -845.972538129     A.U. after   14 cycles
 SCF Done:  E(RB3LYP) =  -846.386399885     A.U. after   15 cycles
 SCF Done:  E(RB3LYP) =  -846.452339756     A.U. after   14 cycles
 SCF Done:  E(RB3LYP) =  -846.568825276     A.U. after   13 cycles
 SCF Done:  E(RB3LYP) =  -846.632804136     A.U. after   13 cycles
 SCF Done:  E(RB3LYP) =  -846.636570399     A.U. after   12 cycles
 SCF Done:  E(RB3LYP) =  -846.636669999     A.U. after   10 cycles
 SCF Done:  E(RB3LYP) =  -846.636672644     A.U. after    7 cycles
 Optimization completed.
    -- Stationary point found.
 Normal termination of Gaussian 16 at Fri Jul  3 10:59:28 2020.

 -----------------------------------------------------------------
 #N Geom=AllCheck Guess=TCheck SCRF=Check GenChk RB3LYP/6-31G Freq
 -----------------------------------------------------------------

 Structure from the checkpoint file:  "5_hexagons18.chk"
 ------------
 5_hexagons18
 ------------
 Charge =  0 Multiplicity = 1

                         Standard orientation:
 ---------------------------------------------------------------------
 Center     Atomic      Atomic             Coordinates (Angstroms)
 Number     Number       Type             X           Y           Z
 ---------------------------------------------------------------------
      1          6           0       -0.000000    3.866224   -2.517738
      2          6           0       -0.000000    2.629655   -1.886246
      3          6           0       -0.000000    5.053121   -1.758838
      4          6           0       -0.000000    2.520017   -0.474417
      5          6           0       -0.000000    3.728696    0.290466
      6          6           0       -0.000000    1.234041    0.227146
      7          6           0       -0.000000    4.978351   -0.374833
      8          6           0       -0.000000    3.665965    1.730562
      9          6           0       -0.000000    0.000000   -0.442269
     10          6           0       -0.000000   -1.234041    0.227146
     11          6           0       -0.000000    1.226814    1.665392
     12          6           0       -0.000000   -2.629655   -1.886246
     13          6           0       -0.000000   -2.520017   -0.474417
     14          6           0       -0.000000   -3.866224   -2.517738
     15          6           0       -0.000000   -3.728696    0.290466
     16          6           0       -0.000000   -1.226814    1.665392
     17          6           0       -0.000000   -5.053121   -1.758838
     18          6           0       -0.000000   -4.978351   -0.374833
     19          6           0       -0.000000   -3.665965    1.730562
     20          6           0       -0.000000    2.473453    2.386402
     21          6           0        0.000000   -0.000000    2.341840
     22          6           0       -0.000000   -2.473453    2.386402
     23          1           0       -0.000000    3.917128   -3.601906
     24          1           0       -0.000000    1.735838   -2.499123
     25          1           0       -0.000000    5.885491    0.223046
     26          1           0       -0.000000    6.017728   -2.256036
     27          1           0       -0.000000    2.437713    3.471934
     28          1           0       -0.000000    4.601152    2.283234
     29          1           0       -0.000000    0.000000   -1.523450
     30          1           0        0.000000   -0.000000    3.428988
     31          1           0       -0.000000   -4.601152    2.283234
     32          1           0       -0.000000   -2.437713    3.471934
     33          1           0       -0.000000   -3.917128   -3.601906
     34          1           0       -0.000000   -6.017728   -2.256036
     35          1           0       -0.000000   -5.885491    0.223046
     36          1           0       -0.000000   -1.735838   -2.499123
 ---------------------------------------------------------------------

 SCF Done:  E(RB3LYP) =  -846.636672644     A.U. after    1 cycles

 The electronic state is 1-A1.
 Alpha  occ. eigenvalues --  -10.20112 -10.20111 -10.20073 -10.20072 -10.19776
 Alpha  occ. eigenvalues --  -10.19775 -10.19772 -10.19772 -10.18919 -10.18919
 Alpha  occ. eigenvalues --  -10.18913 -10.18913 -10.18869 -10.18869 -10.18856
 Alpha  occ. eigenvalues --  -10.18856 -10.18847 -10.18847 -10.18841 -10.18803
 Alpha  occ. eigenvalues --  -10.18803 -10.18781  -0.89031  -0.87432  -0.84973
 Alpha  occ. eigenvalues --   -0.82184  -0.80310  -0.77705  -0.77429  -0.74567
 Alpha  occ. eigenvalues --   -0.74347  -0.71729  -0.71107  -0.64808  -0.63583
 Alpha  occ. eigenvalues --   -0.62600  -0.61156  -0.59942  -0.58533  -0.56012
 Alpha  occ. eigenvalues --   -0.53393  -0.51855  -0.50758  -0.50173  -0.49476
 Alpha  occ. eigenvalues --   -0.46553  -0.46135  -0.45240  -0.43685  -0.43674
 Alpha  occ. eigenvalues --   -0.43088  -0.42641  -0.41394  -0.41370  -0.40867
 Alpha  occ. eigenvalues --   -0.40451  -0.39255  -0.38853  -0.37246  -0.36697
 Alpha  occ. eigenvalues --   -0.35727  -0.34872  -0.34146  -0.32818  -0.32462
 Alpha  occ. eigenvalues --   -0.32139  -0.31090  -0.28168  -0.27922  -0.24547
 Alpha  occ. eigenvalues --   -0.24191  -0.21095  -0.20035
 Alpha virt. eigenvalues --   -0.05370  -0.04202  -0.01487  -0.00409   0.03140
 Alpha virt. eigenvalues --    0.03203   0.07001   0.08353   0.09794   0.09893
 Alpha virt. eigenvalues --    0.10106   0.12093   0.12135   0.14165   0.14728

 Mulliken charges:
               1
     1  C   -0.136187
     2  C   -0.133723
     3  C   -0.117676
     4  C    0.010743
     5  C    0.061058
     6  C    0.035487
     7  C   -0.178444
     8  C   -0.156366
     9  C   -0.190677
    10  C    0.035487
    11  C    0.085037
    12  C   -0.133723
    13  C    0.010743
    14  C   -0.136187
    15  C    0.061058
    16  C    0.085037
    17  C   -0.117676
    18  C   -0.178444
    19  C   -0.156366
    20  C   -0.148798
    21  C   -0.266685
    22  C   -0.148798
    23  H    0.125186
    24  H    0.129919
    25  H    0.129194
    26  H    0.126180
    27  H    0.129889
    28  H    0.129560
    29  H    0.142993
    30  H    0.132257
    31  H    0.129560
    32  H    0.129889
    33  H    0.125186
    34  H    0.126180
    35  H    0.129194
    36  H    0.129919
 Sum of Mulliken charges =  -0.00000

 Dipole moment (field-independent basis, Debye):
    X=             -0.0000    Y=             -0.0000    Z=             -0.0930  Tot=              0.0930
 Quadrupole moment (field-independent basis, Debye-Ang):
   XX=           -134.1695   YY=           -108.6471   ZZ=           -109.5492
   XY=              0.0000   XZ=             -0.0000   YZ=             -0.0000

  Exact polarizability:  60.709  -0.000 430.565  -0.000   0.000 268.891
 Approx polarizability:  85.607   0.000 666.047   0.000  -0.000 497.828

                      1                      2                      3
                     A2                     B1                     A2
 Frequencies --     44.5544                55.7664               110.2962
 Red. masses --      4.4197                 4.5981                 4.3265
 Frc consts  --      0.0052                 0.0084                 0.0310
 IR Inten    --      0.0000                 0.3263                 0.0000

                      4                      5                      6
                     A1                     B1                     B1
 Frequencies --    118.2150               130.4635               190.8559
 Red. masses --      5.4104                 4.0644                 4.2201
 Frc consts  --      0.0445                 0.0408                 0.0906
 IR Inten    --      0.1360                 1.2227                 0.1652

                      7                      8                      9
                     A2                     B2                     B1
 Frequencies --    222.0809               256.3491               289.1979
 Red. masses --      4.2422                 5.4403                 3.5014
 Frc consts  --      0.1233                 0.2106                 0.1725
 IR Inten    --      0.0000                 0.1110                 3.0682

                     10                     11                     12
                     A1                     A2                     A1
 Frequencies --    310.0777               319.4870               416.3779
 Red. masses --      6.7281                 4.7019                 4.8951
 Frc consts  --      0.3811                 0.2828                 0.5000
 IR Inten    --      0.5243                 0.0000                 0.1103

                     13                     14                     15
                     B1                     A2                     B2
 Frequencies --    421.9283               425.3577               442.4138
 Red. masses --      3.2297                 3.1227                 5.4592
 Frc consts  --      0.3388                 0.3329                 0.6296
 IR Inten    --      0.0125                 0.0000                 3.9399

                     16                     17                     18
                     B1                     B2                     B1
 Frequencies --    452.4535               512.4158               538.4900
 Red. masses --      2.8780                 6.0257                 2.7535
 Frc consts  --      0.3471                 0.9322                 0.4704
 IR Inten    --     10.9727                 2.2864                 1.7061

                     19                     20                     21
                     A2                     A1                     B2
 Frequencies --    540.3481               541.4428               547.0412
 Red. masses --      3.4668                 6.2962                 5.4908
 Frc consts  --      0.5964                 1.0875                 0.9681
 IR Inten    --      0.0000                 0.3725                 0.0596

                     22                     23                     24
                     B1                     A2                     A1
 Frequencies --    579.2785               585.5876               593.1722
 Red. masses --      3.1480                 3.3981                 6.6721
 Frc consts  --      0.6224                 0.6866                 1.3832
 IR Inten    --      3.7518                 0.0000                 0.0356

                     25                     26                     27
                     B2                     A1                     A2
 Frequencies --    621.8898               680.2949               691.5645
 Red. masses --      7.5785                 6.4235                 3.5648
 Frc consts  --      1.7269                 1.7515                 1.0045
 IR Inten    --      8.6518                 2.2516                 0.0000

                     28                     29                     30
                     B1                     A1                     B2
 Frequencies --    736.5933               744.7079               744.9070
 Red. masses --      2.9675                 6.5567                 5.5997
 Frc consts  --      0.9486                 2.1424                 1.8307
 IR Inten    --     10.1071                 0.4367                 1.1882

                     31                     32                     33
                     B1                     A2                     B2
 Frequencies --    772.7902               778.4645               796.8929
 Red. masses --      1.3367                 1.3497                 5.5017
 Frc consts  --      0.4703                 0.4819                 2.0585
 IR Inten    --     54.1725                 0.0000                 3.0638

                     34                     35                     36
                     B1                     A1                     A2
 Frequencies --    801.1340               804.2492               816.6341
 Red. masses --      2.0283                 6.1046                 3.0645
 Frc consts  --      0.7670                 2.3264                 1.2041
 IR Inten    --      8.0721                 0.0335                 0.0000

                     37                     38                     39
                     B1                     A2                     A1
 Frequencies --    836.2302               852.2623               891.6110
 Red. masses --      1.4468                 1.5571                 4.4973
 Frc consts  --      0.5961                 0.6664                 2.1065
 IR Inten    --     72.3475                 0.0000                 1.0440

                     40                     41                     42
                     B1                     B1                     A2
 Frequencies --    901.9990               903.7005               903.9569
 Red. masses --      1.5334                 1.9415                 1.6391
 Frc consts  --      0.7350                 0.9342                 0.7891
 IR Inten    --     22.1052                 9.7474                 0.0000

                     43                     44                     45
                     B2                     B1                     A2
 Frequencies --    917.3642               937.9730               975.0091
 Red. masses --      4.5740                 1.5681                 1.3742
 Frc consts  --      2.2679                 0.8129                 0.7697
 IR Inten    --      3.2165                34.7345                 0.0000

                     46                     47                     48
                     B1                     B2                     A2
 Frequencies --    977.4542               992.1718              1007.0999
 Red. masses --      1.3707                 4.0204                 1.3267
 Frc consts  --      0.7716                 2.3318                 0.7928
 IR Inten    --     10.7597                 0.9503                 0.0000

                     49                     50                     51
                     B1                     A2                     B1
 Frequencies --   1010.4524              1021.5853              1022.8330
 Red. masses --      1.3448                 1.3477                 1.3567
 Frc consts  --      0.8090                 0.8287                 0.8363
 IR Inten    --      0.1807                 0.0000                 0.0125

                     52                     53                     54
                     A1                     B2                     A1
 Frequencies --   1036.1606              1077.0234              1085.7308
 Red. masses --      7.7674                 2.3171                 2.3059
 Frc consts  --      4.9134                 1.5836                 1.6015
 IR Inten    --      0.4006                 3.9415                 3.2767

                     55                     56                     57
                     B2                     A1                     B2
 Frequencies --   1147.6331              1154.5209              1197.4530
 Red. masses --      2.2236                 2.2454                 1.4772
 Frc consts  --      1.7255                 1.7634                 1.2480
 IR Inten    --      0.9564                 0.4298                 0.7874

                     58                     59                     60
                     A1                     B2                     A1
 Frequencies --   1208.5562              1220.9018              1227.2461
 Red. masses --      1.3291                 1.3071                 1.1137
 Frc consts  --      1.1438                 1.1480                 0.9883
 IR Inten    --      0.6461                 0.2451                 0.0104

                     61                     62                     63
                     B2                     B2                     A1
 Frequencies --   1235.4001              1254.0761              1269.7434
 Red. masses --      1.3299                 2.0979                 2.2425
 Frc consts  --      1.1959                 1.9440                 2.1302
 IR Inten    --      5.1498                 0.2205                 2.0298

                     64                     65                     66
                     A1                     B2                     A1
 Frequencies --   1278.0535              1288.1272              1320.8041
 Red. masses --      1.8219                 2.1542                 2.7312
 Frc consts  --      1.7533                 2.1060                 2.8073
 IR Inten    --     13.6212                 0.6143                 0.0030

                     67                     68                     69
                     B2                     B2                     A1
 Frequencies --   1327.9224              1346.8500              1359.5947
 Red. masses --      1.8540                 1.5109                 2.2681
 Frc consts  --      1.9262                 1.6148                 2.4702
 IR Inten    --      0.6183                 2.4480                 0.0010

                     70                     71                     72
                     A1                     B2                     B2
 Frequencies --   1383.9822              1395.3280              1408.3715
 Red. masses --      5.7525                 4.2803                 5.2457
 Frc consts  --      6.4919                 4.9099                 6.1304
 IR Inten    --      1.9454                 3.3929                 1.5328

                     73                     74                     75
                     A1                     B2                     A1
 Frequencies --   1433.0709              1478.1539              1481.0587
 Red. masses --      5.5549                 1.6838                 3.5857
 Frc consts  --      6.7214                 2.1677                 4.6342
 IR Inten    --      1.7010                 0.0106                 1.2026

                     76                     77                     78
                     B2                     A1                     B2
 Frequencies --   1487.7546              1493.3257              1512.9645
 Red. masses --      2.2154                 2.2863                 2.1873
 Frc consts  --      2.8891                 3.0040                 2.9499
 IR Inten    --      3.6261                 1.1048                18.4421

                     79                     80                     81
                     A1                     B2                     A1
 Frequencies --   1535.6620              1549.5686              1571.7574
 Red. masses --      2.4713                 2.7816                 3.2862
 Frc consts  --      3.4337                 3.9352                 4.7832
 IR Inten    --      0.8963                18.0291                12.9893

                     82                     83                     84
                     B2                     A1                     B2
 Frequencies --   1608.8387              1615.2264              1654.3858
 Red. masses --      4.3053                 6.8680                 5.1647
 Frc consts  --      6.5657                10.5572                 8.3285
 IR Inten    --      1.8908                 0.0009                 0.7635

                     85                     86                     87
                     A1                     B2                     B2
 Frequencies --   1667.5548              1671.4672              1679.6673
 Red. masses --      5.4926                 5.7673                 6.4045
 Frc consts  --      8.9989                 9.4933                10.6460
 IR Inten    --      1.0435                 0.1112                 0.7509

                     88                     89                     90
                     A1                     A1                     B2
 Frequencies --   1686.1295              3181.6162              3183.7972
 Red. masses --      6.5074                 1.0887                 1.0860
 Frc consts  --     10.9004                 6.4932                 6.4859
 IR Inten    --      2.6414                 4.9527                 0.0012

                     91                     92                     93
                     A1                     B2                     A1
 Frequencies --   3185.2263              3187.4721              3187.5315
 Red. masses --      1.0878                 1.0863                 1.0864
 Frc consts  --      6.5028                 6.5029                 6.5033
 IR Inten    --     11.0777                 7.7048                 0.1576

                     94                     95                     96
                     A1                     B2                     B2
 Frequencies --   3197.6379              3198.0799              3206.5886
 Red. masses --      1.0885                 1.0886                 1.0973
 Frc consts  --      6.5574                 6.5600                 6.6474
 IR Inten    --     11.5948                 2.5924                25.0718

                     97                     98                     99
                     A1                     A1                     B2
 Frequencies --   3207.2257              3213.3410              3215.0275
 Red. masses --      1.0972                 1.0932                 1.0934
 Frc consts  --      6.6497                 6.6506                 6.6586
 IR Inten    --     64.6188                 0.8607                89.3781

                    100                    101                    102
                     A1                     B2                     A1
 Frequencies --   3224.6017              3227.4286              3250.1928
 Red. masses --      1.0979                 1.0967                 1.0868
 Frc consts  --      6.7264                 6.7303                 6.7643
 IR Inten    --     29.6574                 8.2880                17.5863

 - Thermochemistry -
 -------------------
 Temperature   298.150 Kelvin.  Pressure   1.00000 Atm.
 Atom     1 has atomic number  6 and mass  12.00000

 Molecular mass:   278.10955 amu.
 Principal axes and moments of inertia in atomic units:
                           1         2         3
     Eigenvalues --  2732.39461********************
           X            0.00000   0.00000   1.00000
           Y            1.00000   0.00000   0.00000
           Z           -0.00000   1.00000   0.00000
 This molecule is an asymmetric top.
 Rotational symmetry number  2.
 Warning -- assumption of classical behavior for rotation
           may cause significant error
 Rotational temperatures (Kelvin)      0.03170     0.00810     0.00645
 Rotational constants (GHZ):           0.66050     0.16874     0.13441
 Zero-point vibrational energy     765617.8 (Joules/Mol)
                                  182.98706 (Kcal/Mol)
 Warning -- explicit consideration of  24 degrees of freedom as
           vibrations may cause significant error
 Vibrational temperatures:     64.10    80.24   158.69   170.09   187.71
          (Kelvin)            274.60   319.52   368.83   416.09   446.13
                              459.67   599.07   607.06   611.99   636.53
                              650.98   737.25   774.77   777.44   779.02
                              787.07   833.45   842.53   853.44   894.76
                              978.79   995.01  1059.79  1071.47  1071.76
                             1111.87  1120.04  1146.55  1152.65  1157.14
                             1174.95  1203.15  1226.22  1282.83  1297.78
                             1300.22  1300.59  1319.88  1349.53  1402.82
                             1406.34  1427.51  1448.99  1453.82  1469.83
                             1471.63  1490.80  1549.60  1562.12  1651.19
                             1661.10  1722.87  1738.84  1756.61  1765.73
                             1777.47  1804.34  1826.88  1838.83  1853.33
                             1900.34  1910.58  1937.82  1956.15  1991.24
                             2007.57  2026.33  2061.87  2126.73  2130.91
                             2140.55  2148.56  2176.82  2209.48  2229.48
                             2261.41  2314.76  2323.95  2380.29  2399.24
                             2404.87  2416.67  2425.96  4577.64  4580.77
                             4582.83  4586.06  4586.15  4600.69  4601.32
                             4613.57  4614.48  4623.28  4625.71  4639.48
                             4643.55  4676.30

 Zero-point correction=                           0.291608 (Hartree/Particle)
 Thermal correction to Energy=                    0.306157
 Thermal correction to Enthalpy=                  0.307101
 Thermal correction to Gibbs Free Energy=         0.250506
 Sum of electronic and zero-point Energies=           -846.345064
 Sum of electronic and thermal Energies=              -846.330516
 Sum of electronic and thermal Enthalpies=            -846.329572
 Sum of electronic and thermal Free Energies=         -846.386167

                     E (Thermal)             CV                S
                      KCal/Mol        Cal/Mol-Kelvin    Cal/Mol-Kelvin
 Total                  192.116             62.629            119.115
 Electronic               0.000              0.000              0.000
 Translational            0.889              2.981             42.767
 Rotational               0.889              2.981             32.950
 Vibrational            190.339             56.667             43.398
 Vibration     1          0.595              1.980              5.046
 Vibration     2          0.596              1.975              4.602
 Vibration     3          0.606              1.941              3.264
 Vibration     4          0.608              1.934              3.129
 Vibration     5          0.612              1.923              2.939
 Vibration     6          0.634              1.852              2.220
 Vibration     7          0.648              1.807              1.942
 Vibration     8          0.666              1.752              1.687
 Vibration     9          0.686              1.694              1.479
 Vibration    10          0.699              1.655              1.362
 Vibration    11          0.705              1.636              1.313
 Vibration    12          0.780              1.435              0.904
 Vibration    13          0.784              1.423              0.885
 Vibration    14          0.787              1.415              0.874
 Vibration    15          0.802              1.378              0.819
 Vibration    16          0.811              1.355              0.788
 Vibration    17          0.868              1.222              0.628
 Vibration    18          0.894              1.165              0.569
 Vibration    19          0.895              1.161              0.565
 Vibration    20          0.897              1.158              0.562
 Vibration    21          0.902              1.146              0.550
 Vibration    22          0.936              1.076              0.487
 Vibration    23          0.943              1.063              0.475
 Vibration    24          0.951              1.046              0.462

 Optimization completed.
    -- Stationary point found.
 Normal termination of Gaussian 16 at Fri Jul  3 11:15:32 2020.
